LAMMPS data file for unit tests

9 atoms
2 atom types
6 bonds
1 bond types
3 angles
1 angle types

0 59.64 xlo xhi
0 59.02829152194734 ylo yhi
-60 160 zlo zhi

Masses

1 15.9994
2 1.008

Atoms # full

1 1 2 0.4238 3.5414243474023532 1.91017656181819 4.476105105344606 0 1 0
2 1 1 -0.8476 3.7299458035713413 2.4307066112131603 3.6433337530000283 0 1 0
3 1 2 0.4238 2.8885062196011124 2.5243990592933807 3.1111673334788694 0 1 0
4 2 1 -0.8476 5.337097532919669 4.675807948050013 3.360999176645864 0 0 0
5 2 2 0.4238 4.849802174008749 3.8169865858874332 3.5190152459761834 0 0 0
6 2 2 0.4238 4.74065293723344 5.312381642807319 2.872094494776713 0 0 0
7 3 1 -0.8476 19.100968715221356 5.6396245918056644 3.365174779399085 0 1 0
8 3 2 0.4238 18.93574407862939 5.296591127564207 4.289852706685494 0 1 0
9 3 2 0.4238 20.085594115447616 5.722427491977129 3.2113651265721574 0 1 0

Velocities

1 -0.0008279784222773804 0.00884441301550738 0.004859135104728426
2 0.00600470178561172 -0.002345618279349976 -0.0005701553016237728
3 0.003488294787387118 0.01847911672233962 0.0071316620097289325
4 -0.0012640090958024447 0.0019579789082800505 -0.0006447993719070823
5 -0.009135589956771797 0.008944126212623535 0.013105577823449063
6 0.002313778597869491 0.0019607637406936734 -0.005013229382544914
7 -0.0013221052580254815 0.0008116176148109583 0.001969157086785925
8 0.01674212611541277 0.01028731614041471 0.008725741451131037
9 -0.004048932523665004 -0.010526077373204098 -0.021696802154779354

Bonds

3 1 2 3
4 1 2 1
5 1 4 6
6 1 4 5
39 1 7 8
40 1 7 9

Angles

2 1 3 2 1
3 1 6 4 5
20 1 8 7 9